! S-parameter export from FEKO
!   Filename:      MWA_ARRAY_SParameter1.s16p
!   Creation date: 2020-02-17 13:38:08
! 
# Hz S MA R  1.00000E+02
! 
 5.0000000E+07  9.9851878E-01  -33.992  3.9565907E-02 -125.351  5.1270308E-03 -140.499  1.0217583E-03 -160.723
                5.8656821E-04 -173.398  1.4453597E-03 -151.733  2.3428820E-03 -140.269  1.4392617E-03   84.806
                4.1609923E-04  148.806  5.1646868E-04  168.557  4.7811906E-04  170.263  3.0812303E-04  155.271
                1.8374106E-04  116.173  2.4065506E-04  120.595  2.5864238E-04  121.547  2.1386798E-04  111.463
                3.9565854E-02 -125.351  9.9745623E-01  -34.291  4.0194386E-02 -125.828  5.1270897E-03 -140.499
                1.4422671E-03 -151.793  2.5750267E-03 -142.911  1.2232269E-03  112.034  2.3383918E-03 -140.251
                5.1574914E-04  168.376  6.2364639E-04  156.035  6.3138949E-04  166.871  4.7771158E-04  169.847
                2.4065808E-04  120.596  3.3106097E-04  121.354  3.4619367E-04  120.508  2.5863273E-04  121.548
                5.1270358E-03 -140.499  4.0194361E-02 -125.828  9.9745606E-01  -34.294  3.9571146E-02 -125.353
                2.3385744E-03 -140.252  1.2233389E-03  112.032  2.5752693E-03 -142.912  1.4423807E-03 -151.794
                4.7775193E-04  169.844  6.3147749E-04  166.869  6.2366422E-04  156.034  5.1579640E-04  168.375
                2.5866318E-04  121.546  3.4622185E-04  120.508  3.3109275E-04  121.353  2.4067476E-04  120.594
                1.0217530E-03 -160.724  5.1270768E-03 -140.500  3.9571163E-02 -125.353  9.9851919E-01  -33.994
                1.4393625E-03   84.805  2.3429778E-03 -140.269  1.4454492E-03 -151.734  5.8660559E-04 -173.399
                3.0814344E-04  155.269  4.7816808E-04  170.261  5.1646311E-04  168.557  4.1611585E-04  148.805
                2.1388270E-04  111.464  2.5865530E-04  121.545  2.4067062E-04  120.593  1.8374860E-04  116.171
                5.8657384E-04 -173.399  1.4422678E-03 -151.794  2.3385831E-03 -140.252  1.4393554E-03   84.805
                9.9847832E-01  -33.999  3.9591996E-02 -125.371  5.0854459E-03 -140.641  1.0147150E-03 -162.624
                5.9189602E-04 -175.665  1.4365104E-03 -152.292  2.3525320E-03 -140.599  1.4328449E-03   86.573
                4.1610161E-04  148.805  5.1576112E-04  168.375  4.7772344E-04  169.845  3.0813218E-04  155.270
                1.4453729E-03 -151.733  2.5750238E-03 -142.911  1.2233355E-03  112.032  2.3429644E-03 -140.269
                3.9591984E-02 -125.371  9.9743866E-01  -34.304  4.0239049E-02 -125.831  5.0854406E-03 -140.641
                1.4364728E-03 -152.291  2.5919981E-03 -142.983  1.2178089E-03  113.596  2.3525688E-03 -140.598
                5.1645691E-04  168.559  6.2362374E-04  156.035  6.3141022E-04  166.871  4.7813453E-04  170.264
                2.3428995E-03 -140.268  1.2232176E-03  112.035  2.5752737E-03 -142.912  1.4454513E-03 -151.734
                5.0854471E-03 -140.641  4.0239063E-02 -125.831  9.9743843E-01  -34.304  3.9591937E-02 -125.371
                2.3525852E-03 -140.599  1.2178082E-03  113.601  2.5919044E-03 -142.982  1.4364667E-03 -152.290
                4.7814713E-04  170.264  6.3141332E-04  166.871  6.2363499E-04  156.035  5.1644478E-04  168.559
                1.4392536E-03   84.806  2.3384069E-03 -140.251  1.4423743E-03 -151.795  5.8660646E-04 -173.399
                1.0147160E-03 -162.624  5.0854417E-03 -140.641  3.9591938E-02 -125.371  9.9847873E-01  -33.999
                1.4328098E-03   86.574  2.3526771E-03 -140.600  1.4364545E-03 -152.291  5.9189272E-04 -175.664
                3.0813696E-04  155.270  4.7772323E-04  169.846  5.1576610E-04  168.375  4.1609247E-04  148.804
                4.1609587E-04  148.807  5.1576071E-04  168.375  4.7775574E-04  169.844  3.0814440E-04  155.269
                5.9189447E-04 -175.664  1.4364721E-03 -152.291  2.3525923E-03 -140.600  1.4328150E-03   86.573
                9.9847865E-01  -33.999  3.9591675E-02 -125.371  5.0852510E-03 -140.640  1.0146793E-03 -162.623
                5.8657668E-04 -173.398  1.4422495E-03 -151.793  2.3384001E-03 -140.251  1.4392542E-03   84.805
                5.1645644E-04  168.559  6.2364408E-04  156.035  6.3147937E-04  166.870  4.7816928E-04  170.263
                1.4365046E-03 -152.291  2.5920132E-03 -142.983  1.2178071E-03  113.600  2.3526548E-03 -140.599
                3.9591651E-02 -125.371  9.9743853E-01  -34.304  4.0238397E-02 -125.831  5.0853662E-03 -140.641
                1.4454105E-03 -151.733  2.5750875E-03 -142.911  1.2232230E-03  112.034  2.3429443E-03 -140.269
                4.7811780E-04  170.264  6.3138707E-04  166.871  6.2366142E-04  156.035  5.1645653E-04  168.558
                2.3525321E-03 -140.598  1.2178072E-03  113.597  2.5918905E-03 -142.982  1.4364527E-03 -152.290
                5.0852383E-03 -140.640  4.0238437E-02 -125.831  9.9743896E-01  -34.303  3.9590286E-02 -125.370
                2.3428465E-03 -140.268  1.2232322E-03  112.029  2.5749757E-03 -142.910  1.4453410E-03 -151.732
                3.0812569E-04  155.270  4.7771417E-04  169.846  5.1580201E-04  168.374  4.1611399E-04  148.806
                1.4328523E-03   86.572  2.3525829E-03 -140.599  1.4364740E-03 -152.291  5.9189399E-04 -175.664
                1.0146767E-03 -162.624  5.0853589E-03 -140.641  3.9590319E-02 -125.370  9.9847872E-01  -33.999
                1.4393154E-03   84.804  2.3383621E-03 -140.251  1.4422417E-03 -151.793  5.8656414E-04 -173.398
                1.8374063E-04  116.172  2.4066000E-04  120.594  2.5866815E-04  121.545  2.1388363E-04  111.463
                4.1610360E-04  148.805  5.1646319E-04  168.557  4.7814470E-04  170.262  3.0813526E-04  155.270
                5.8657574E-04 -173.398  1.4454136E-03 -151.734  2.3428502E-03 -140.268  1.4393198E-03   84.804
                9.9851913E-01  -33.993  3.9567439E-02 -125.351  5.1267919E-03 -140.498  1.0217106E-03 -160.723
                2.4065365E-04  120.596  3.3106142E-04  121.354  3.4622156E-04  120.508  2.5864978E-04  121.546
                5.1575583E-04  168.376  6.2362802E-04  156.034  6.3141167E-04  166.870  4.7771854E-04  169.847
                1.4422607E-03 -151.793  2.5751017E-03 -142.911  1.2232384E-03  112.029  2.3383693E-03 -140.250
                3.9567420E-02 -125.351  9.9745624E-01  -34.291  4.0191781E-02 -125.827  5.1267361E-03 -140.498
                2.5863636E-04  121.549  3.4619526E-04  120.509  3.3109309E-04  121.353  2.4066889E-04  120.595
                4.7772298E-04  169.847  6.3141521E-04  166.871  6.2363730E-04  156.035  5.1575662E-04  168.376
                2.3384124E-03 -140.251  1.2232256E-03  112.035  2.5749699E-03 -142.910  1.4422434E-03 -151.792
                5.1268034E-03 -140.498  4.0191803E-02 -125.827  9.9745629E-01  -34.291  3.9566638E-02 -125.351
                2.1387051E-04  111.463  2.5864304E-04  121.547  2.4067825E-04  120.594  1.8375010E-04  116.171
                3.0813096E-04  155.270  4.7813963E-04  170.263  5.1646077E-04  168.557  4.1609786E-04  148.804
                1.4392372E-03   84.806  2.3429553E-03 -140.269  1.4453329E-03 -151.732  5.8656384E-04 -173.398
                1.0217158E-03 -160.723  5.1267359E-03 -140.498  3.9566635E-02 -125.351  9.9851920E-01  -33.992
 5.1280000E+07  9.9830663E-01  -35.162  4.1711918E-02 -126.675  5.5078543E-03 -142.736  1.1161875E-03 -164.585
                6.4279790E-04 -178.367  1.5762787E-03 -155.079  2.5757199E-03 -142.895  1.4318937E-03   89.509
                4.8362003E-04  147.788  5.9037211E-04  164.914  5.3037382E-04  165.111  3.4039491E-04  148.126
                2.0777596E-04  106.959  2.7137490E-04  113.790  2.9571226E-04  116.909  2.4396929E-04  108.789
                4.1711920E-02 -126.675  9.9710036E-01  -35.481  4.2383786E-02 -127.193  5.5081171E-03 -142.736
                1.5719169E-03 -155.129  2.8274475E-03 -145.705  1.3190875E-03  120.038  2.5704571E-03 -142.873
                5.8928676E-04  164.716  7.2382997E-04  153.338  7.1783667E-04  162.761  5.2905790E-04  164.657
                2.7137385E-04  113.791  3.7749812E-04  115.927  3.9743040E-04  115.898  2.9573342E-04  116.910
                5.5078669E-03 -142.735  4.2383793E-02 -127.193  9.9710020E-01  -35.485  4.1719699E-02 -126.678
                2.5705538E-03 -142.874  1.3192050E-03  120.035  2.8277494E-03 -145.707  1.5721067E-03 -155.132
                5.2910140E-04  164.656  7.1793657E-04  162.759  7.2382267E-04  153.337  5.8932531E-04  164.715
                2.9574432E-04  116.908  3.9747337E-04  115.896  3.7752135E-04  115.925  2.7141279E-04  113.788
                1.1161875E-03 -164.585  5.5081048E-03 -142.737  4.1719673E-02 -126.678  9.9830656E-01  -35.165
                1.4320279E-03   89.507  2.5759001E-03 -142.897  1.5764513E-03 -155.082  6.4288499E-04 -178.370
                3.4042881E-04  148.125  5.3044973E-04  165.108  5.9037568E-04  164.913  4.8364662E-04  147.786
                2.4397913E-04  108.788  2.9575127E-04  116.906  2.7139473E-04  113.788  2.0780501E-04  106.956
                6.4280019E-04 -178.367  1.5719100E-03 -155.130  2.5705517E-03 -142.874  1.4320260E-03   89.507
                9.9825617E-01  -35.171  4.1743656E-02 -126.700  5.4623764E-03 -142.872  1.1006963E-03 -166.637
                6.4408986E-04  179.058  1.5637365E-03 -155.629  2.5850016E-03 -143.247  1.4353287E-03   91.519
                4.8361056E-04  147.786  5.8929602E-04  164.714  5.2906643E-04  164.656  3.4043100E-04  148.125
                1.5762806E-03 -155.079  2.8274263E-03 -145.705  1.3191979E-03  120.034  2.5758967E-03 -142.896
                4.1743658E-02 -126.700  9.9707586E-01  -35.497  4.2439423E-02 -127.203  5.4625124E-03 -142.872
                1.5637581E-03 -155.629  2.8467226E-03 -145.791  1.3212608E-03  121.677  2.5851698E-03 -143.247
                5.9037921E-04  164.915  7.2383174E-04  153.336  7.1789383E-04  162.759  5.3045959E-04  165.110
                2.5757314E-03 -142.895  1.3190824E-03  120.038  2.8277414E-03 -145.707  1.5764599E-03 -155.081
                5.4623705E-03 -142.872  4.2439374E-02 -127.203  9.9707558E-01  -35.497  4.1745431E-02 -126.701
                2.5852089E-03 -143.248  1.3213248E-03  121.677  2.8465932E-03 -145.791  1.5637742E-03 -155.629
                5.3043995E-04  165.110  7.1792149E-04  162.759  7.2385479E-04  153.337  5.9043253E-04  164.913
                1.4318855E-03   89.509  2.5704734E-03 -142.873  1.5721071E-03 -155.132  6.4288933E-04 -178.370
                1.1006949E-03 -166.637  5.4625061E-03 -142.873  4.1745401E-02 -126.701  9.9825645E-01  -35.172
                1.4353457E-03   91.519  2.5852307E-03 -143.249  1.5637160E-03 -155.629  6.4410976E-04  179.057
                3.4042615E-04  148.125  5.2910476E-04  164.655  5.8932860E-04  164.713  4.8368813E-04  147.786
                4.8361569E-04  147.788  5.8929575E-04  164.715  5.2910386E-04  164.655  3.4042924E-04  148.125
                6.4408867E-04  179.058  1.5637573E-03 -155.630  2.5851924E-03 -143.248  1.4353486E-03   91.519
                9.9825627E-01  -35.172  4.1744261E-02 -126.701  5.4621083E-03 -142.871  1.1006671E-03 -166.637
                6.4285178E-04 -178.369  1.5720378E-03 -155.131  2.5704973E-03 -142.874  1.4320067E-03   89.508
                5.9035834E-04  164.915  7.2382625E-04  153.339  7.1793501E-04  162.759  5.3045054E-04  165.110
                1.5637343E-03 -155.628  2.8467182E-03 -145.791  1.3213242E-03  121.677  2.5852296E-03 -143.248
                4.1744261E-02 -126.701  9.9707583E-01  -35.497  4.2437195E-02 -127.202  5.4622892E-03 -142.872
                1.5763837E-03 -155.080  2.8276381E-03 -145.706  1.3191380E-03  120.034  2.5760057E-03 -142.897
                5.3037033E-04  165.113  7.1783029E-04  162.761  7.2381510E-04  153.337  5.9036487E-04  164.915
                2.5849839E-03 -143.246  1.3212605E-03  121.677  2.8465880E-03 -145.791  1.5637118E-03 -155.628
                5.4621153E-03 -142.871  4.2437208E-02 -127.202  9.9707603E-01  -35.495  4.1742295E-02 -126.700
                2.5757002E-03 -142.895  1.3191289E-03  120.033  2.8273989E-03 -145.705  1.5763851E-03 -155.080
                3.4039815E-04  148.126  5.2905928E-04  164.656  5.8933007E-04  164.714  4.8364297E-04  147.786
                1.4353291E-03   91.519  2.5851907E-03 -143.248  1.5637785E-03 -155.630  6.4411115E-04  179.057
                1.1006676E-03 -166.637  5.4622896E-03 -142.872  4.1742331E-02 -126.700  9.9825618E-01  -35.172
                1.4319481E-03   89.509  2.5705953E-03 -142.874  1.5720006E-03 -155.131  6.4288087E-04 -178.371
                2.0777441E-04  106.959  2.7137741E-04  113.790  2.9574818E-04  116.907  2.4397844E-04  108.788
                4.8361201E-04  147.786  5.9038677E-04  164.913  5.3043762E-04  165.109  3.4042480E-04  148.125
                6.4284726E-04 -178.369  1.5763749E-03 -155.081  2.5756980E-03 -142.895  1.4319513E-03   89.510
                9.9830618E-01  -35.164  4.1717657E-02 -126.677  5.5081348E-03 -142.737  1.1162827E-03 -164.587
                2.7137402E-04  113.791  3.7749924E-04  115.927  3.9747331E-04  115.896  2.9574430E-04  116.908
                5.8929361E-04  164.715  7.2383678E-04  153.336  7.1792093E-04  162.758  5.2909988E-04  164.656
                1.5720368E-03 -155.131  2.8276309E-03 -145.706  1.3191310E-03  120.034  2.5706125E-03 -142.874
                4.1717647E-02 -126.677  9.9709994E-01  -35.484  4.2385112E-02 -127.194  5.5084943E-03 -142.738
                2.9570779E-04  116.910  3.9743113E-04  115.898  3.7752073E-04  115.925  2.7139066E-04  113.789
                5.2906372E-04  164.657  7.1789704E-04  162.759  7.2385930E-04  153.337  5.8931965E-04  164.715
                2.5704922E-03 -142.874  1.3191452E-03  120.034  2.8274093E-03 -145.705  1.5720051E-03 -155.131
                5.5081487E-03 -142.736  4.2385092E-02 -127.194  9.9709993E-01  -35.483  4.1718530E-02 -126.678
                2.4396913E-04  108.789  2.9573937E-04  116.909  2.7141335E-04  113.787  2.0780656E-04  106.956
                3.4042768E-04  148.125  5.3046276E-04  165.108  5.9044636E-04  164.912  4.8369291E-04  147.786
                1.4320084E-03   89.508  2.5759934E-03 -142.897  1.5763810E-03 -155.081  6.4287945E-04 -178.370
                1.1162826E-03 -164.587  5.5084763E-03 -142.738  4.1718486E-02 -126.678  9.9830631E-01  -35.166
 5.2560000E+07  9.9806226E-01  -36.365  4.3990468E-02 -128.046  5.9196750E-03 -145.051  1.2184546E-03 -168.566
                7.0316935E-04  176.635  1.7193782E-03 -158.512  2.8323539E-03 -145.620  1.4411341E-03   95.216
                5.6218921E-04  146.420  6.7425343E-04  161.164  5.8791079E-04  159.950  3.7409846E-04  141.013
                2.3331679E-04   97.688  3.0507948E-04  106.999  3.3832983E-04  112.189  2.7998711E-04  106.073
                4.3990426E-02 -128.046  9.9669342E-01  -36.705  4.4705651E-02 -128.607  5.9198290E-03 -145.052
                1.7135782E-03 -158.542  3.1047493E-03 -148.590  1.4677221E-03  127.581  2.8261786E-03 -145.589
                6.7262378E-04  160.959  8.3753732E-04  150.434  8.1491271E-04  158.590  5.8528555E-04  159.485
                3.0508999E-04  106.999  4.2960734E-04  110.451  4.5573312E-04  111.169  3.3834424E-04  112.189
                5.9196836E-03 -145.051  4.4705584E-02 -128.607  9.9669330E-01  -36.708  4.3997411E-02 -128.048
                2.8263664E-03 -145.591  1.4678650E-03  127.576  3.1049519E-03 -148.591  1.7137198E-03 -158.543
                5.8532513E-04  159.483  8.1496591E-04  158.589  8.3764867E-04  150.431  6.7268437E-04  160.956
                3.3835438E-04  112.190  4.5575764E-04  111.168  4.2965083E-04  110.449  3.0512648E-04  106.996
                1.2184515E-03 -168.566  5.9198161E-03 -145.052  4.3997397E-02 -128.048  9.9806214E-01  -36.367
                1.4411862E-03   95.216  2.8326214E-03 -145.621  1.7194585E-03 -158.513  7.0322270E-04  176.634
                3.7411972E-04  141.013  5.8794258E-04  159.949  6.7432563E-04  161.162  5.6226018E-04  146.418
                2.7999344E-04  106.073  3.3834313E-04  112.188  3.0510921E-04  106.997  2.3334334E-04   97.687
                7.0317309E-04  176.635  1.7135822E-03 -158.543  2.8263766E-03 -145.591  1.4411808E-03   95.216
                9.9799989E-01  -36.374  4.4024726E-02 -128.076  5.8699999E-03 -145.169  1.1919515E-03 -170.631
                6.9832948E-04  173.854  1.7026914E-03 -159.016  2.8412996E-03 -145.991  1.4582940E-03   97.362
                5.6225831E-04  146.417  6.7266174E-04  160.955  5.8532600E-04  159.482  3.7414596E-04  141.012
                1.7193901E-03 -158.512  3.1047661E-03 -148.590  1.4678590E-03  127.576  2.8326240E-03 -145.621
                4.4024694E-02 -128.076  9.9665976E-01  -36.721  4.4768463E-02 -128.622  5.8701322E-03 -145.169
                1.7026692E-03 -159.015  3.1267429E-03 -148.691  1.4793593E-03  129.173  2.8412191E-03 -145.990
                6.7430720E-04  161.164  8.3759609E-04  150.431  8.1495315E-04  158.589  5.8797315E-04  159.950
                2.8323530E-03 -145.619  1.4677159E-03  127.581  3.1049485E-03 -148.591  1.7194674E-03 -158.513
                5.8700054E-03 -145.169  4.4768431E-02 -128.622  9.9665964E-01  -36.720  4.4023229E-02 -128.075
                2.8411167E-03 -145.990  1.4793125E-03  129.175  3.1267124E-03 -148.691  1.7026336E-03 -159.015
                5.8793479E-04  159.951  8.1491796E-04  158.590  8.3757206E-04  150.433  6.7431582E-04  161.164
                1.4411278E-03   95.216  2.8261794E-03 -145.590  1.7137143E-03 -158.544  7.0322577E-04  176.634
                1.1919532E-03 -170.631  5.8701224E-03 -145.170  4.4023185E-02 -128.075  9.9800043E-01  -36.374
                1.4583494E-03   97.360  2.8412386E-03 -145.991  1.7027159E-03 -159.016  6.9833571E-04  173.854
                3.7413200E-04  141.012  5.8531677E-04  159.483  6.7266997E-04  160.955  5.6225498E-04  146.416
                5.6218676E-04  146.420  6.7263026E-04  160.958  5.8533163E-04  159.483  3.7412396E-04  141.012
                6.9832845E-04  173.854  1.7026723E-03 -159.016  2.8411245E-03 -145.991  1.4583450E-03   97.360
                9.9800051E-01  -36.372  4.4021475E-02 -128.075  5.8697904E-03 -145.169  1.1918574E-03 -170.630
                7.0318004E-04  176.634  1.7135529E-03 -158.542  2.8261588E-03 -145.590  1.4411919E-03   95.216
                6.7424436E-04  161.165  8.3753694E-04  150.434  8.1496579E-04  158.589  5.8794370E-04  159.951
                1.7026875E-03 -159.015  3.1267612E-03 -148.691  1.4793114E-03  129.174  2.8412197E-03 -145.991
                4.4021473E-02 -128.075  9.9665993E-01  -36.720  4.4767972E-02 -128.622  5.8697960E-03 -145.168
                1.7194196E-03 -158.512  3.1047379E-03 -148.590  1.4677686E-03  127.576  2.8326119E-03 -145.621
                5.8790815E-04  159.951  8.1491490E-04  158.590  8.3764546E-04  150.432  6.7431397E-04  161.164
                2.8412880E-03 -145.991  1.4793578E-03  129.173  3.1266955E-03 -148.691  1.7027135E-03 -159.016
                5.8697973E-03 -145.168  4.4767960E-02 -128.622  9.9665989E-01  -36.721  4.4022692E-02 -128.075
                2.8325210E-03 -145.620  1.4677644E-03  127.574  3.1048657E-03 -148.590  1.7195336E-03 -158.513
                3.7409897E-04  141.013  5.8529010E-04  159.483  6.7269226E-04  160.955  5.6225437E-04  146.418
                1.4583030E-03   97.362  2.8412264E-03 -145.991  1.7026388E-03 -159.016  6.9833589E-04  173.854
                1.1918542E-03 -170.630  5.8697881E-03 -145.169  4.4022726E-02 -128.075  9.9800009E-01  -36.373
                1.4411051E-03   95.217  2.8261396E-03 -145.590  1.7135888E-03 -158.543  7.0321710E-04  176.634
                2.3331746E-04   97.688  3.0509406E-04  106.998  3.3836086E-04  112.188  2.7999270E-04  106.073
                5.6225977E-04  146.417  6.7431563E-04  161.162  5.8793216E-04  159.949  3.7412707E-04  141.013
                7.0317642E-04  176.635  1.7194136E-03 -158.512  2.8325175E-03 -145.621  1.4411117E-03   95.217
                9.9806200E-01  -36.367  4.3994615E-02 -128.047  5.9198225E-03 -145.052  1.2185420E-03 -168.568
                3.0507853E-04  106.999  4.2960986E-04  110.450  4.5575727E-04  111.168  3.3833515E-04  112.190
                6.7265048E-04  160.956  8.3759831E-04  150.431  8.1491750E-04  158.589  5.8531209E-04  159.484
                1.7135603E-03 -158.542  3.1047491E-03 -148.590  1.4677729E-03  127.574  2.8261471E-03 -145.589
                4.3994584E-02 -128.047  9.9669291E-01  -36.706  4.4705334E-02 -128.607  5.9200625E-03 -145.052
                3.3832526E-04  112.190  4.5573384E-04  111.169  4.2964883E-04  110.449  3.0510380E-04  106.998
                5.8531977E-04  159.484  8.1495403E-04  158.589  8.3757355E-04  150.433  6.7266619E-04  160.957
                2.8261657E-03 -145.589  1.4677770E-03  127.576  3.1048610E-03 -148.591  1.7135902E-03 -158.542
                5.9198385E-03 -145.052  4.4705291E-02 -128.607  9.9669302E-01  -36.707  4.3996644E-02 -128.048
                2.7998742E-04  106.073  3.3835035E-04  112.188  3.0512923E-04  106.995  2.3334222E-04   97.686
                3.7414374E-04  141.012  5.8797339E-04  159.948  6.7431706E-04  161.162  5.6225852E-04  146.416
                1.4411950E-03   95.216  2.8325860E-03 -145.621  1.7195190E-03 -158.514  7.0321511E-04  176.634
                1.2185447E-03 -168.568  5.9200423E-03 -145.052  4.3996603E-02 -128.048  9.9806232E-01  -36.368
 5.3840000E+07  9.9778161E-01  -37.599  4.6402239E-02 -129.462  6.3633977E-03 -147.442  1.3286361E-03 -172.657
                7.6810793E-04  171.631  1.8757179E-03 -162.033  3.1150020E-03 -148.449  1.4776350E-03  101.826
                6.5331733E-04  144.655  7.6928077E-04  157.280  6.5141107E-04  154.792  4.0926996E-04  134.013
                2.6005558E-04   88.461  3.4203100E-04  100.261  3.8728461E-04  107.333  3.2335803E-04  103.110
                4.6402151E-02 -129.462  9.9622853E-01  -37.959  4.7158106E-02 -130.067  6.3632763E-03 -147.442
                1.8683670E-03 -162.031  3.4088190E-03 -151.567  1.6752121E-03  134.130  3.1075460E-03 -148.406
                7.6696826E-04  157.076  9.6629678E-04  147.321  9.2372196E-04  154.350  6.4718675E-04  154.343
                3.4203268E-04  100.262  4.8808155E-04  104.928  5.2197025E-04  106.302  3.8729314E-04  107.335
                6.3634021E-03 -147.442  4.7158058E-02 -130.067  9.9622855E-01  -37.961  4.6404631E-02 -129.463
                3.1077399E-03 -148.407  1.6752819E-03  134.125  3.4090212E-03 -151.568  1.8683897E-03 -162.031
                6.4723238E-04  154.342  9.2372508E-04  154.350  9.6636523E-04  147.319  7.6695477E-04  157.075
                3.8727522E-04  107.336  5.2196705E-04  106.301  4.8811684E-04  104.927  3.4206726E-04  100.260
                1.3286345E-03 -172.657  6.3632634E-03 -147.442  4.6404629E-02 -129.463  9.9778153E-01  -37.599
                1.4777318E-03  101.824  3.1149451E-03 -148.449  1.8757535E-03 -162.033  7.6809193E-04  171.632
                4.0928220E-04  134.013  6.5138895E-04  154.794  7.6929822E-04  157.280  6.5330685E-04  144.656
                3.2333671E-04  103.110  3.8726074E-04  107.335  3.4204421E-04  100.260  2.6007355E-04   88.460
                7.6811490E-04  171.632  1.8683661E-03 -162.032  3.1077467E-03 -148.408  1.4777321E-03  101.824
                9.9770550E-01  -37.607  4.6438024E-02 -129.498  6.3115553E-03 -147.538  1.2895688E-03 -174.577
                7.5521662E-04  168.785  1.8549873E-03 -162.458  3.1229772E-03 -148.837  1.5125767E-03  103.889
                6.5329926E-04  144.655  7.6692382E-04  157.075  6.4721376E-04  154.342  4.0930358E-04  134.012
                1.8757376E-03 -162.032  3.4088256E-03 -151.567  1.6752773E-03  134.125  3.1149506E-03 -148.448
                4.6437992E-02 -129.498  9.9618299E-01  -37.977  4.7234741E-02 -130.092  6.3113258E-03 -147.537
                1.8551010E-03 -162.459  3.4343252E-03 -151.690  1.6977218E-03  135.575  3.1229488E-03 -148.836
                7.6928986E-04  157.281  9.6631666E-04  147.320  9.2375187E-04  154.350  6.5146191E-04  154.793
                3.1150171E-03 -148.448  1.6752106E-03  134.130  3.4090279E-03 -151.568  1.8757649E-03 -162.033
                6.3115608E-03 -147.537  4.7234698E-02 -130.092  9.9618262E-01  -37.977  4.6436722E-02 -129.497
                3.1231424E-03 -148.837  1.6976653E-03  135.579  3.4345006E-03 -151.691  1.8550681E-03 -162.459
                6.5142383E-04  154.793  9.2372888E-04  154.350  9.6637539E-04  147.320  7.6938121E-04  157.280
                1.4776263E-03  101.826  3.1075582E-03 -148.407  1.8683890E-03 -162.032  7.6809645E-04  171.632
                1.2895714E-03 -174.577  6.3113234E-03 -147.537  4.6436712E-02 -129.497  9.9770595E-01  -37.606
                1.5125298E-03  103.889  3.1227681E-03 -148.836  1.8549970E-03 -162.459  7.5517449E-04  168.786
                4.0926497E-04  134.014  6.4716943E-04  154.342  7.6694949E-04  157.074  6.5332762E-04  144.655
                6.5331623E-04  144.656  7.6697446E-04  157.074  6.4723714E-04  154.340  4.0928739E-04  134.013
                7.5521726E-04  168.785  1.8551000E-03 -162.460  3.1231377E-03 -148.838  1.5125286E-03  103.889
                9.9770580E-01  -37.607  4.6436391E-02 -129.497  6.3113944E-03 -147.537  1.2895823E-03 -174.578
                7.6811201E-04  171.631  1.8683578E-03 -162.032  3.1077595E-03 -148.408  1.4777704E-03  101.824
                7.6927766E-04  157.282  9.6629216E-04  147.322  9.2371882E-04  154.350  6.5138571E-04  154.794
                1.8549879E-03 -162.458  3.4343033E-03 -151.690  1.6976618E-03  135.578  3.1227917E-03 -148.835
                4.6436353E-02 -129.497  9.9618287E-01  -37.975  4.7232066E-02 -130.091  6.3111083E-03 -147.536
                1.8756221E-03 -162.031  3.4085969E-03 -151.566  1.6751411E-03  134.125  3.1149748E-03 -148.448
                6.5141069E-04  154.795  9.2371944E-04  154.351  9.6635744E-04  147.320  7.6928688E-04  157.281
                3.1230014E-03 -148.836  1.6977172E-03  135.574  3.4344864E-03 -151.691  1.8549978E-03 -162.458
                6.3114016E-03 -147.537  4.7232030E-02 -130.091  9.9618301E-01  -37.976  4.6437010E-02 -129.497
                3.1148748E-03 -148.447  1.6751473E-03  134.123  3.4088822E-03 -151.568  1.8758182E-03 -162.033
                4.0927277E-04  134.014  6.4719168E-04  154.342  7.6696306E-04  157.074  6.5330159E-04  144.656
                1.5125768E-03  103.889  3.1229497E-03 -148.837  1.8550665E-03 -162.460  7.5517501E-04  168.786
                1.2895795E-03 -174.578  6.3110922E-03 -147.536  4.6437060E-02 -129.497  9.9770580E-01  -37.606
                1.4776940E-03  101.824  3.1075399E-03 -148.406  1.8683765E-03 -162.032  7.6814463E-04  171.630
                2.6005463E-04   88.462  3.4203585E-04  100.261  3.8727829E-04  107.335  3.2333534E-04  103.110
                6.5330338E-04  144.655  7.6929934E-04  157.280  6.5142328E-04  154.793  4.0926130E-04  134.014
                7.6810906E-04  171.632  1.8756118E-03 -162.032  3.1148878E-03 -148.448  1.4776996E-03  101.824
                9.9778152E-01  -37.598  4.6401913E-02 -129.462  6.3632386E-03 -147.442  1.3286898E-03 -172.658
                3.4202656E-04  100.262  4.8808188E-04  104.928  5.2196885E-04  106.301  3.8725609E-04  107.336
                7.6691705E-04  157.076  9.6631926E-04  147.320  9.2373161E-04  154.350  6.4716746E-04  154.344
                1.8683600E-03 -162.031  3.4085957E-03 -151.566  1.6751560E-03  134.123  3.1075406E-03 -148.406
                4.6401849E-02 -129.462  9.9622862E-01  -37.959  4.7157060E-02 -130.066  6.3635147E-03 -147.443
                3.8727832E-04  107.335  5.2197196E-04  106.302  4.8811929E-04  104.926  3.4204030E-04  100.261
                6.4720862E-04  154.342  9.2375049E-04  154.350  9.6637780E-04  147.320  7.6694634E-04  157.076
                3.1077536E-03 -148.407  1.6751511E-03  134.125  3.4088842E-03 -151.568  1.8683831E-03 -162.031
                6.3632525E-03 -147.442  4.7157039E-02 -130.066  9.9622829E-01  -37.961  4.6406381E-02 -129.464
                3.2336123E-04  103.110  3.8730443E-04  107.333  3.4207412E-04  100.259  2.6007427E-04   88.459
                4.0930192E-04  134.012  6.5146043E-04  154.791  7.6938504E-04  157.278  6.5333467E-04  144.655
                1.4777721E-03  101.824  3.1149825E-03 -148.449  1.8758037E-03 -162.034  7.6814118E-04  171.630
                1.3286904E-03 -172.658  6.3635006E-03 -147.443  4.6406367E-02 -129.464  9.9778139E-01  -37.601
 5.5120000E+07  9.9745793E-01  -38.865  4.8956817E-02 -130.929  6.8425130E-03 -149.914  1.4471595E-03 -176.852
                8.3838749E-04  166.629  2.0467980E-03 -165.649  3.4254460E-03 -151.386  1.5542006E-03  109.008
                7.5822734E-04  142.479  8.7669439E-04  153.239  7.2194788E-04  149.621  4.4627424E-04  127.191
                2.8791656E-04   79.380  3.8274349E-04   93.597  4.4342257E-04  102.290  3.7524990E-04   99.717
                4.8956778E-02 -130.929  9.9569775E-01  -39.246  4.9756456E-02 -131.577  6.8421616E-03 -149.913
                2.0378691E-03 -165.607  3.7421944E-03 -154.642  1.9448307E-03  139.409  3.4171242E-03 -151.331
                8.7350417E-04  153.049  1.1117948E-03  143.997  1.0458707E-03  150.022  7.1584153E-04  149.219
                3.8273351E-04   93.598  5.5385929E-04   99.347  5.9715554E-04  101.275  4.4342475E-04  102.291
                6.8425310E-03 -149.913  4.9756435E-02 -131.577  9.9569766E-01  -39.250  4.8960375E-02 -130.930
                3.4173287E-03 -151.332  1.9450489E-03  139.403  3.7423023E-03 -154.643  2.0380310E-03 -165.608